##File Type: Far field
##File Format: 6
##Source: PF_COEW
##Date: 2021-03-07 15:07:36  
** File exported by Altair Feko - Solver (seq) Version 2019.1-338 from 2019-06-07


#Configuration Name: StandardConfiguration1
#Request Name: FF
#Frequency:   9.50000000E+008
#Coordinate System: Spherical
#No. of Theta Samples: 34
#No. of Phi Samples: 33
#Result Type: Directivity
#No. of Header Lines: 1
#       "Theta"             "Phi"           "Re(Etheta)"       "Im(Etheta)"        "Re(Ephi)"         "Im(Ephi)"   "Directivity(Theta)" "Directivity(Phi)" "Directivity(Total)"
    0.00000000E+000    0.00000000E+000   -1.22970106E-011   -4.81027562E-011    4.52329036E+002   -1.13838593E+003   -2.34852275E+002    3.29918241E+001    3.29918241E+001
    3.11936364E-001    0.00000000E+000    1.07446111E-008    1.79771056E-008    4.52459964E+002   -1.12733905E+003   -1.82349692E+002    3.29191201E+001    3.29191201E+001
    6.23872727E-001    0.00000000E+000    2.06067648E-008    3.71613140E-008    4.52728955E+002   -1.09467330E+003   -1.76204385E+002    3.27008165E+001    3.27008165E+001
    9.35809091E-001    0.00000000E+000    2.87546936E-008    5.84797248E-008    4.52777211E+002   -1.04178652E+003   -1.72490079E+002    3.23363901E+001    3.23363901E+001
    1.24774545E+000    0.00000000E+000    3.45125881E-008    8.25663027E-008    4.52047483E+002   -9.70920920E+002   -1.69735195E+002    3.18251587E+001    3.18251587E+001
    1.55968182E+000    0.00000000E+000    3.74036714E-008    1.09599338E-007    4.49841165E+002   -8.85037544E+002   -1.67495978E+002    3.11666151E+001    3.11666151E+001
    1.87161818E+000    0.00000000E+000    3.71872424E-008    1.39246644E-007    4.45390540E+002   -7.87652053E+002   -1.65595714E+002    3.03610056E+001    3.03610056E+001
    2.18355455E+000    0.00000000E+000    3.38737889E-008    1.70678006E-007    4.37939413E+002   -6.82642087E+002   -1.63959274E+002    2.94102746E+001    2.94102746E+001
    2.49549091E+000    0.00000000E+000    2.77163855E-008    2.02644320E-007    4.26824534E+002   -5.74038455E+002   -1.62555424E+002    2.83195429E+001    2.83195429E+001
    2.80742727E+000    0.00000000E+000    1.91787184E-008    2.33614370E-007    4.11550202E+002   -4.65813190E+002   -1.61371443E+002    2.70992653E+001    2.70992653E+001
    3.11936364E+000    0.00000000E+000    8.88226766E-009    2.61952965E-007    3.91849049E+002   -3.61677562E+002   -1.60401149E+002    2.57680235E+001    2.57680235E+001
    3.43130000E+000    0.00000000E+000   -2.46264851E-009    2.86118849E-007    3.67723358E+002   -2.64902215E+002   -1.59639355E+002    2.43552645E+001    2.43552645E+001
    3.74323636E+000    0.00000000E+000   -1.41356540E-008    3.04858074E-007    3.39463031E+002   -1.78169990E+002   -1.59079324E+002    2.29019678E+001    2.29019678E+001
    4.05517273E+000    0.00000000E+000   -2.54871446E-008    3.17368952E-007    3.07638567E+002   -1.03469546E+002   -1.58711398E+002    2.14556340E+001    2.14556340E+001
    4.36710909E+000    0.00000000E+000   -3.60129862E-008    3.23417722E-007    2.73069646E+002   -4.20350477E+001   -1.58521812E+002    2.00565733E+001    2.00565733E+001
    4.67904545E+000    0.00000000E+000   -4.54150148E-008    3.23390045E-007    2.36772211E+002    5.66602991E+000   -1.58491256E+002    1.87184953E+001    1.87184953E+001
    4.99098182E+000    0.00000000E+000   -5.36403010E-008    3.18270903E-007    1.99888805E+002    3.98982203E+001   -1.58593027E+002    1.74148331E+001    1.74148331E+001
    5.30291818E+000    0.00000000E+000   -6.08941458E-008    3.09554058E-007    1.63608441E+002    6.15808553E+001   -1.58790987E+002    1.60809170E+001    1.60809170E+001
    5.61485455E+000    0.00000000E+000   -6.76241067E-008    2.99090693E-007    1.29083084E+002    7.21754325E+001   -1.59038022E+002    1.46282268E+001    1.46282268E+001
    5.92679091E+000    0.00000000E+000   -7.44755996E-008    2.88894014E-007    9.73480654E+001    7.35468325E+001   -1.59276395E+002    1.29571110E+001    1.29571110E+001
    6.23872727E+000    0.00000000E+000   -8.22225557E-008    2.80921985E-007    6.92531955E+001    6.78091089E+001   -1.59441927E+002    1.09579371E+001    1.09579371E+001
    6.55066364E+000    0.00000000E+000   -9.16796879E-008    2.76862913E-007    4.54102605E+001    5.71672052E+001   -1.59473442E+002    8.49681403E+000    8.49681403E+000
    6.86260000E+000    0.00000000E+000   -1.03605332E-007    2.77948407E-007    2.61609578E+001    4.37657363E+001   -1.59326303E+002    5.37885288E+000    5.37885288E+000
    7.17453636E+000    0.00000000E+000   -1.18605302E-007    2.84814874E-007    1.15673669E+001    2.95549418E+001   -1.58984842E+002    1.26097652E+000    1.26097652E+000
    7.48647273E+000    0.00000000E+000   -1.37048763E-007    2.97429197E-007    1.42495621E+000    1.61821697E+001   -1.58466775E+002   -4.55632500E+000   -4.55632500E+000
    7.79840909E+000    0.00000000E+000   -1.59006168E-007    3.15086676E-007   -4.70390729E+000    4.91493770E+000   -1.57816730E+002   -1.21163572E+001   -1.21163572E+001
    8.11034545E+000    0.00000000E+000   -1.84217478E-007    3.36480992E-007   -7.43976247E+000   -3.40106567E+000   -1.57092840E+002   -1.05152207E+001   -1.05152207E+001
    8.42228182E+000    0.00000000E+000   -2.12095673E-007    3.59837770E-007   -7.52435171E+000   -8.34851069E+000   -1.56353453E+002   -7.75610796E+000   -7.75610796E+000
    8.73421818E+000    0.00000000E+000   -2.41766806E-007    3.83096071E-007   -5.75341667E+000   -9.91171267E+000   -1.55648540E+002   -7.58650815E+000   -7.58650815E+000
    9.04615455E+000    0.00000000E+000   -2.72143736E-007    4.04117096E-007   -2.91022423E+000   -8.42135759E+000   -1.55016295E+002   -9.77302043E+000   -9.77302043E+000
    9.35809091E+000    0.00000000E+000   -3.02026572E-007    4.20896661E-007    2.94319748E-001   -4.47732044E+000   -1.54483200E+002   -1.57315159E+001   -1.57315159E+001
    9.67002727E+000    0.00000000E+000   -3.30219590E-007    4.31757928E-007    3.27002943E+000    1.14243091E+000   -1.54065620E+002   -1.79794299E+001   -1.79794299E+001
    9.98196364E+000    0.00000000E+000   -3.55651981E-007    4.35504018E-007    5.58068266E+000    7.57823468E+000   -1.53771645E+002   -9.29755973E+000   -9.29755973E+000
    1.02939000E+001    0.00000000E+000   -3.77488959E-007    4.31514895E-007    6.96019766E+000    1.39819509E+001   -1.53602569E+002   -4.89778784E+000   -4.89778784E+000
    0.00000000E+000    5.62500000E+000    4.43359986E+001   -1.11581333E+002    4.50150948E+002   -1.13290429E+003    1.28178646E+001    3.29498981E+001    3.29918241E+001
    3.11936364E-001    5.62500000E+000    4.42255576E+001   -1.10518073E+002    4.50281645E+002   -1.12191044E+003    1.27431372E+001    3.28771941E+001    3.29191007E+001
    6.23872727E-001    5.62500000E+000    4.38914050E+001   -1.07375008E+002    4.50550509E+002   -1.08940149E+003    1.25185050E+001    3.26588905E+001    3.27007363E+001
    9.35809091E-001    5.62500000E+000    4.33255723E+001   -1.02289530E+002    4.50600381E+002   -1.03676859E+003    1.21426350E+001    3.22944644E+001    3.23362006E+001
    1.24774545E+000    5.62500000E+000    4.25164532E+001   -9.54816455E+001    4.49876557E+002   -9.66243171E+002    1.16133677E+001    3.17832342E+001    3.18247982E+001
    1.55968182E+000    5.62500000E+000    4.14511137E+001   -8.72411490E+001    4.47683610E+002   -8.80772066E+002    1.09278444E+001    3.11246936E+001    3.11660015E+001
    1.87161818E+000    5.62500000E+000    4.01181469E+001   -7.79108981E+001    4.43257314E+002   -7.83854065E+002    1.00827655E+001    3.03190901E+001    3.03600259E+001
    2.18355455E+000    5.62500000E+000    3.85107414E+001   -6.78673247E+001    4.35844895E+002   -6.79348196E+002    9.07489046E+000    2.93683702E+001    2.94087733E+001
    2.49549091E+000    5.62500000E+000    3.66296051E+001   -5.74994771E+001    4.24786082E+002   -5.71265924E+002    7.90197880E+000    2.82776574E+001    2.83173064E+001
    2.80742727E+000    5.62500000E+000    3.44853912E+001   -4.71879719E+001    4.09587363E+002   -4.63560228E+002    6.56450548E+000    2.70574103E+001    2.70960081E+001
    3.11936364E+000    5.62500000E+000    3.21003275E+001   -3.72852123E+001    3.89982498E+002   -3.59924568E+002    5.06865710E+000    2.57262150E+001    2.57633830E+001
    3.43130000E+000    5.62500000E+000    2.95088222E+001   -2.80981115E+001    3.65973641E+002   -2.63613901E+002    3.43119323E+000    2.43135229E+001    2.43488238E+001
    3.74323636E+000    5.62500000E+000    2.67569307E+001   -1.98743529E+001    3.37849239E+002   -1.77298202E+002    1.68623491E+000    2.28603149E+001    2.28933309E+001
    4.05517273E+000    5.62500000E+000    2.39006819E+001   -1.27929440E+001    3.06177034E+002   -1.02956593E+002   -1.08311267E-001    2.14140873E+001    2.14445677E+001
    4.36710909E+000    5.62500000E+000    2.10033811E+001   -6.95949899E+000    2.71772811E+002   -4.18173263E+001   -1.87239870E+000    2.00151379E+001    2.00431683E+001
    4.67904545E+000    5.62500000E+000    1.81321168E+001   -2.40633659E+000    2.35647720E+002    5.65436327E+000   -3.52581203E+000    1.86771590E+001    1.87032315E+001
    4.99098182E+000    5.62500000E+000    1.53537771E+001    9.02858708E-001    1.98938945E+002    3.97217372E+001   -5.03130956E+000    1.73735698E+001    1.73984613E+001
    5.30291818E+000    5.62500000E+000    1.27309388E+001    3.06437865E+000    1.62829947E+002    6.12997181E+001   -6.42879458E+000    1.60396975E+001    1.60642281E+001
    5.61485455E+000    5.62500000E+000    1.03180043E+001    4.22265942E+000    1.28467336E+002    7.18427970E+001   -7.82617157E+000    1.45870302E+001    1.46118742E+001
    5.92679091E+000    5.62500000E+000    8.15793853E+000    4.55628761E+000    9.68816539E+001    7.32069174E+001   -9.35988030E+000    1.29159328E+001    1.29415729E+001
    6.23872727E+000    5.62500000E+000    6.27989987E+000    4.26295889E+000    6.89188049E+001    6.74960047E+001   -1.11656298E+001    1.09167973E+001    1.09436013E+001
    6.55066364E+000    5.62500000E+000    4.69797087E+000    3.54451960E+000    4.51877939E+001    5.69044414E+001   -1.33755102E+001    8.45577651E+000    8.48417107E+000
    6.86260000E+000    5.62500000E+000    3.41108540E+000    2.59314992E+000    2.60288062E+001    4.35665740E+001   -1.61318954E+001    5.33808600E+000    5.36893512E+000
    7.17453636E+000    5.62500000E+000    2.40413385E+000    1.57959764E+000    1.15037164E+001    2.94233069E+001   -1.95929318E+001    1.22098908E+000    1.25684807E+000
    7.48647273E+000    5.62500000E+000    1.65011467E+000    6.44159396E-001    1.40902918E+000    1.61141061E+001   -2.38043257E+001   -4.59340189E+000   -4.54162920E+000
    7.79840909E+000    5.62500000E+000    1.11310370E+000   -1.09149245E-001   -4.69077315E+000    4.90042745E+000   -2.77983332E+001   -1.21413715E+001   -1.20248915E+001
    8.11034545E+000    5.62500000E+000    7.51740550E-001   -6.15070065E-001   -7.41327450E+000   -3.37608189E+000   -2.90235316E+001   -1.05518974E+001   -1.04905845E+001
    8.42228182E+000    5.62500000E+000    5.22891817E-001   -8.46333323E-001   -7.49671440E+000   -8.30008290E+000   -2.88155877E+001   -7.79830669E+000   -7.76408166E+000
    8.73421818E+000    5.62500000E+000    3.85146045E-001   -8.10001219E-001   -5.73310018E+000   -9.85595993E+000   -2.97156720E+001   -7.63089203E+000   -7.60410244E+000
    9.04615455E+000    5.62500000E+000    3.01826571E-001   -5.41485470E-001   -2.90204433E+000   -8.37281177E+000   -3.29238363E+001   -9.82047982E+000   -9.79927727E+000
    9.35809091E+000    5.62500000E+000    2.43269892E-001   -9.69462029E-002    2.88842636E-001   -4.44764017E+000   -4.04087064E+001   -1.57897346E+001   -1.57747674E+001
    9.67002727E+000    5.62500000E+000    1.88202676E-001    4.55143465E-001    3.25208731E+000    1.14530984E+000   -3.49221305E+001   -1.80195884E+001   -1.79318607E+001
    9.98196364E+000    5.62500000E+000    1.24149937E-001    1.04247655E+000    5.55344514E+000    7.55048732E+000   -2.83481176E+001   -9.33315773E+000   -9.27901027E+000
    1.02939000E+001    5.62500000E+000    4.69093226E-002    1.59670580E+000    6.92800599E+000    1.39238050E+001   -2.47023607E+001   -4.93479255E+000   -4.88921545E+000
    0.00000000E+000    1.12500000E+001    8.82450174E+001   -2.22088077E+002    4.43637661E+002   -1.11651216E+003    1.87965386E+001    3.28233028E+001    3.29918241E+001
    3.11936364E-001    1.12500000E+001    8.80254306E+001   -2.19971701E+002    4.43767633E+002   -1.10567690E+003    1.87218110E+001    3.27505988E+001    3.29190430E+001
    6.23872727E-001    1.12500000E+001    8.73610186E+001   -2.13715556E+002    4.44036017E+002   -1.07363691E+003    1.84971786E+001    3.25322952E+001    3.27004988E+001
    9.35809091E-001    1.12500000E+001    8.62358624E+001   -2.03593111E+002    4.44090565E+002   -1.02176326E+003    1.81213086E+001    3.21678701E+001    3.23356395E+001
    1.24774545E+000    1.12500000E+001    8.46267686E+001   -1.90042277E+002    4.43384189E+002   -9.52255192E+002    1.75920418E+001    3.16566434E+001    3.18237306E+001
    1.55968182E+000    1.12500000E+001    8.25078750E+001   -1.73639872E+002    4.41230999E+002   -8.68017047E+002    1.69065206E+001    3.09981117E+001    3.11641832E+001
    1.87161818E+000    1.12500000E+001    7.98563424E+001   -1.55068334E+002    4.36877221E+002   -7.72497144E+002    1.60614467E+001    3.01925261E+001    3.03571226E+001
    2.18355455E+000    1.12500000E+001    7.66584729E+001   -1.35076935E+002    4.29580331E+002   -6.69498859E+002    1.50535815E+001    2.92418393E+001    2.94043228E+001
    2.49549091E+000    1.12500000E+001    7.29155398E+001   -1.14440060E+002    4.18688983E+002   -5.62975810E+002    1.38806878E+001    2.81511830E+001    2.83106739E+001
    2.80742727E+000    1.12500000E+001    6.86486290E+001   -9.39153139E+001    4.03716237E+002   -4.56823975E+002    1.25432455E+001    2.69310272E+001    2.70863436E+001
    3.11936364E+000    1.12500000E+001    6.39018898E+001   -7.42041514E+001    3.84399237E+002   -3.54683566E+002    1.10474480E+001    2.55999712E+001    2.57496047E+001
    3.43130000E+000    1.12500000E+001    5.87437489E+001   -5.59174833E+001    3.60739767E+002   -2.59762623E+002    9.41006433E+000    2.41874792E+001    2.43296836E+001
    3.74323636E+000    1.12500000E+001    5.32658538E+001   -3.95483292E+001    3.33021918E+002   -1.74692638E+002    7.66522533E+000    2.27345370E+001    2.28676379E+001
    4.05517273E+000    1.12500000E+001    4.75797425E+001   -2.54530143E+001    3.01805197E+002   -1.01424217E+002    5.87084249E+000    2.12886280E+001    2.14116102E+001
    4.36710909E+000    1.12500000E+001    4.18114749E+001   -1.38417769E+001    2.67893729E+002   -4.11679209E+001    4.10695098E+000    1.98900129E+001    2.00032024E+001
    4.67904545E+000    1.12500000E+001    3.60946740E+001   -4.77896264E+000    2.32284323E+002    5.61770956E+000    2.45372891E+000    1.85523318E+001    1.86576845E+001
    4.99098182E+000    1.12500000E+001    3.05625911E+001    1.80770093E+000    1.96098124E+002    3.91921341E+001    9.48364746E-001    1.72489625E+001    1.73495824E+001
    5.30291818E+000    1.12500000E+001    2.53399141E+001    6.10987185E+000    1.60501971E+002    6.04570879E+001   -4.49083124E-001    1.59152220E+001    1.60143933E+001
    5.61485455E+000    1.12500000E+001    2.05350679E+001    8.41504460E+000    1.26626440E+002    7.08461073E+001   -1.84652573E+000    1.44626222E+001    1.45630465E+001
    5.92679091E+000    1.12500000E+001    1.62337088E+001    9.07869620E+000    9.54877298E+001    7.21884058E+001   -3.38039661E+000    1.27915752E+001    1.28951839E+001
    6.23872727E+000    1.12500000E+001    1.24939996E+001    8.49434697E+000    6.79200444E+001    6.65576153E+001   -5.18642248E+000    1.07925430E+001    1.09008019E+001
    6.55066364E+000    1.12500000E+001    9.34407348E+000    7.06378571E+000    4.45240544E+001    5.61165310E+001   -7.39678667E+000    8.33180086E+000    8.44640043E+000
    6.86260000E+000    1.12500000E+001    6.78188251E+000    5.16956630E+000    2.56354082E+001    4.29687843E+001   -1.01541657E+001    5.21485400E+000    5.33920519E+000
    7.17453636E+000    1.12500000E+001    4.77739267E+000    3.15158532E+000    1.13153581E+001    2.90273569E+001   -1.36177009E+001    1.09990811E+000    1.24405201E+000
    7.48647273E+000    1.12500000E+001    3.27686443E+000    1.28912815E+000    1.36350195E+000    1.59081362E+001   -1.78364967E+001   -4.70643135E+000   -4.50016720E+000
    7.79840909E+000    1.12500000E+001    2.20876372E+000   -2.10738123E-001   -4.64935289E+000    4.85444396E+000   -2.18482652E+001   -1.22209407E+001   -1.17717814E+001
    8.11034545E+000    1.12500000E+001    1.49070489E+000   -1.21809616E+000   -7.33194898E+000   -3.30416388E+000   -2.30815992E+001   -1.06632429E+001   -1.04212553E+001
    8.42228182E+000    1.12500000E+001    1.03674747E+000   -1.67865030E+000   -7.41204147E+000   -8.15830608E+000   -2.28680827E+001   -7.92497450E+000   -7.78801024E+000
    8.73421818E+000    1.12500000E+001    7.64360081E-001   -1.60645011E+000   -5.67045665E+000   -9.69257637E+000   -2.37669669E+001   -7.76345079E+000   -7.65579466E+000
    9.04615455E+000    1.12500000E+001    6.00425550E-001   -1.07198361E+000   -2.87586132E+000   -8.23132819E+000   -2.69818150E+001   -9.96102180E+000   -9.87562762E+000
    9.35809091E+000    1.12500000E+001    4.85784484E-001   -1.87047635E-001    2.74008882E-001   -4.36296992E+000   -3.44413393E+001   -1.59578653E+001   -1.58967182E+001
    9.67002727E+000    1.12500000E+001    3.77984404E-001    9.12043233E-001    3.19981435E+000    1.14938966E+000   -2.88819179E+001   -1.81410617E+001   -1.77894996E+001
    9.98196364E+000    1.12500000E+001    2.52099451E-001    2.08133561E+000    5.47324827E+000    7.46249839E+000   -2.23405109E+001   -9.44356882E+000   -9.22621021E+000
    1.02939000E+001    1.12500000E+001    9.96897331E-002    3.18475245E+000    6.83292850E+000    1.37443960E+001   -1.87048388E+001   -5.04890190E+000   -4.86567176E+000
    0.00000000E+000    1.68750000E+001    1.31304188E+002   -3.30455992E+002    4.32851900E+002   -1.08936741E+003    2.22483063E+001    3.26095213E+001    3.29918241E+001
    3.11936364E-001    1.68750000E+001    1.30978014E+002   -3.27306698E+002    4.32980560E+002   -1.07879482E+003    2.21735786E+001    3.25368171E+001    3.29189494E+001
    6.23872727E-001    1.68750000E+001    1.29991034E+002   -3.17997178E+002    4.33247824E+002   -1.04753153E+003    2.19489458E+001    3.23185135E+001    3.27001130E+001
    9.35809091E-001    1.68750000E+001    1.28319420E+002   -3.02934364E+002    4.33309601E+002   -9.96915391E+002    2.15730757E+001    3.19540900E+001    3.23347279E+001
    1.24774545E+000    1.68750000E+001    1.25928439E+002   -2.82769882E+002    4.32631462E+002   -9.29092333E+002    2.10438100E+001    3.14428693E+001    3.18219959E+001
    1.55968182E+000    1.68750000E+001    1.22779324E+002   -2.58362057E+002    4.30543364E+002   -8.46896296E+002    2.03582925E+001    3.07843521E+001    3.11612280E+001
    1.87161818E+000    1.68750000E+001    1.18837767E+002   -2.30726391E+002    4.26308901E+002   -7.53692026E+002    1.95132270E+001    2.99787963E+001    3.03524018E+001
    2.18355455E+000    1.68750000E+001    1.14083046E+002   -2.00977836E+002    4.19202591E+002   -6.53190722E+002    1.85053788E+001    2.90281642E+001    2.93970818E+001
    2.49549091E+000    1.68750000E+001    1.08516731E+002   -1.70268728E+002    4.08587936E+002   -5.49250193E+002    1.73325161E+001    2.79376014E+001    2.82998746E+001
    2.80742727E+000    1.68750000E+001    1.02169913E+002   -1.39726441E+002    3.93988936E+002   -4.45672015E+002    1.59951269E+001    2.67175965E+001    2.70705911E+001
    3.11936364E+000    1.68750000E+001    9.51080615E+001   -1.10394801E+002    3.75148385E+002   -3.46008207E+002    1.44994171E+001    2.53867712E+001    2.57271171E+001
    3.43130000E+000    1.68750000E+001    8.74328515E+001   -8.31829130E+001    3.52067491E+002   -2.53389094E+002    1.28621714E+001    2.39746109E+001    2.42983915E+001
    3.74323636E+000    1.68750000E+001    7.92806018E+001   -5.88244573E+001    3.25023146E+002   -1.70382433E+002    1.11175384E+001    2.25221100E+001    2.28255460E+001
    4.05517273E+000    1.68750000E+001    7.08173230E+001   -3.78497107E+001    2.94561222E+002   -9.88915953E+001    9.32343845E+000    2.10767310E+001    2.13574949E+001
    4.36710909E+000    1.68750000E+001    6.22307261E+001   -2.05715637E+001    2.61466515E+002   -4.00978352E+001    7.55988800E+000    1.96786729E+001    1.99374366E+001
    4.67904545E+000    1.68750000E+001    5.37198568E+001   -7.08580521E+000    2.26712051E+002    5.55139545E+000    5.90700171E+000    1.83414897E+001    1.85826046E+001
    4.99098182E+000    1.68750000E+001    4.54832719E+001    2.71508052E+000    1.91392364E+002    3.83092618E+001    4.40187640E+000    1.70384887E+001    1.72689247E+001
    5.30291818E+000    1.68750000E+001    3.77068282E+001    9.11627540E+000    1.56646712E+002    5.90556573E+001    3.00450361E+000    1.57049688E+001    1.59321280E+001
    5.61485455E+000    1.68750000E+001    3.05522011E+001    1.25455878E+001    1.23579053E+002    6.91894096E+001    1.60696019E+000    1.42524778E+001    1.44824540E+001
    5.92679091E+000    1.68750000E+001    2.41471789E+001    1.35320060E+001    9.31817650E+001    7.04954551E+001    7.28239889E-002    1.25815005E+001    1.28186410E+001
    6.23872727E+000    1.68750000E+001    1.85786074E+001    1.26611467E+001    6.62696155E+001    6.49972440E+001   -1.73365788E+000    1.05826043E+001    1.08301870E+001
    6.55066364E+000    1.68750000E+001    1.38885954E+001    1.05309460E+001    4.34294152E+001    5.48052439E+001   -3.94481504E+000    8.12224215E+000    8.38401477E+000
    6.86260000E+000    1.68750000E+001    1.00742717E+001    7.71072993E+000    2.49892525E+001    4.19722015E+001   -6.70379546E+000    5.00633254E+000    5.28981127E+000
    7.17453636E+000    1.68750000E+001    7.09104109E+000    4.70635474E+000    1.10093144E+001    2.83648363E+001   -1.01712626E+001    8.94420449E-001    1.22157691E+000
    7.48647273E+000    1.68750000E+001    4.85894883E+000    1.93348490E+000    1.29430245E+000    1.55599689E+001   -1.44013900E+001   -4.90048505E+000   -4.43874022E+000
    7.79840909E+000    1.68750000E+001    3.27147883E+000   -2.99685431E-001   -4.57450563E+000    4.77087135E+000   -1.84394313E+001   -1.23670521E+001   -1.14082585E+001
    8.11034545E+000    1.68750000E+001    2.20589292E+000   -1.79977682E+000   -7.19119927E+000   -3.19293976E+000   -1.96829896E+001   -1.08531231E+001   -1.03187957E+001
    8.42228182E+000    1.68750000E+001    1.53410236E+000   -2.48595603E+000   -7.26614512E+000   -7.93196121E+000   -1.94593605E+001   -8.13678884E+000   -7.82777025E+000
    8.73421818E+000    1.68750000E+001    1.13304775E+000   -2.37911216E+000   -5.56161455E+000   -9.43114021E+000   -2.03545261E+001   -7.98321211E+000   -7.73866191E+000
    9.04615455E+000    1.68750000E+001    8.93654943E-001   -1.58414081E+000   -2.82809883E+000   -8.00697275E+000   -2.35747914E+001   -1.01906654E+001   -9.99586260E+000
    9.35809091E+000    1.68750000E+001    7.27616796E-001   -2.67430506E-001    2.53076233E-001   -4.23363112E+000   -3.09822564E+001   -1.62208541E+001   -1.60781329E+001
    9.67002727E+000    1.68750000E+001    5.71503829E-001    1.36812533E+000    3.11610248E+000    1.14422940E+000   -2.53495710E+001   -1.83490437E+001   -1.75590339E+001
    9.98196364E+000    1.68750000E+001    3.88001413E-001    3.10824904E+000    5.34256953E+000    7.30374135E+000   -1.88531377E+001   -9.63841959E+000   -9.14693860E+000
    1.02939000E+001    1.68750000E+001    1.64374998E-001    4.75037149E+000    6.67700043E+000    1.34330506E+001   -1.52308573E+001   -5.24821720E+000   -4.83270931E+000
    0.00000000E+000    2.25000000E+001    1.73098828E+002   -4.35641434E+002    4.17897539E+002   -1.05173146E+003    2.46486173E+001    3.23041310E+001    3.29918241E+001
    3.11936364E-001    2.25000000E+001    1.72669825E+002   -4.31489298E+002    4.18024155E+002   -1.04152314E+003    2.45738893E+001    3.22314266E+001    3.29188234E+001
    6.23872727E-001    2.25000000E+001    1.71371581E+002   -4.19215302E+002    4.18289209E+002   -1.01133702E+003    2.43492561E+001    3.20131230E+001    3.26995938E+001
    9.35809091E-001    2.25000000E+001    1.69172434E+002   -3.99355950E+002    4.18359976E+002   -9.62464864E+002    2.39733859E+001    3.16487019E+001    3.23335006E+001
    1.24774545E+000    2.25000000E+001    1.66026206E+002   -3.72770348E+002    4.17719663E+002   -8.96978663E+002    2.34441219E+001    3.11374894E+001    3.18196595E+001
    1.55968182E+000    2.25000000E+001    1.61881287E+002   -3.40590124E+002    4.15720304E+002   -8.17614740E+002    2.27586097E+001    3.04789922E+001    3.11572458E+001
    1.87161818E+000    2.25000000E+001    1.56691873E+002   -3.04154134E+002    4.11649706E+002   -7.27621938E+002    2.19135568E+001    2.96734775E+001    3.03460365E+001
    2.18355455E+000    2.25000000E+001    1.50430053E+002   -2.64932365E+002    4.04806149E+002   -6.30583626E+002    2.09057332E+001    2.87229208E+001    2.93873102E+001
    2.49549091E+000    2.25000000E+001    1.43097321E+002   -2.24444102E+002    3.94573847E+002   -5.30224743E+002    1.97329154E+001    2.76324871E+001    2.82852846E+001
    2.80742727E+000    2.25000000E+001    1.34734164E+002   -1.84175738E+002    3.80492089E+002   -4.30215946E+002    1.83956035E+001    2.64126908E+001    2.70492774E+001
    3.11936364E+000    2.25000000E+001    1.25426499E+002   -1.45503529E+002    3.62311597E+002   -3.33986938E+002    1.69000209E+001    2.50821847E+001    2.56966304E+001
    3.43130000E+000    2.25000000E+001    1.15308116E+002   -1.09626127E+002    3.40032847E+002   -2.44560263E+002    1.52629763E+001    2.36704840E+001    2.42558614E+001
    3.74323636E+000    2.25000000E+001    1.04558639E+002   -7.75109121E+001    3.13922783E+002   -1.64415279E+002    1.35186439E+001    2.22185956E+001    2.27681631E+001
    4.05517273E+000    2.25000000E+001    9.33970011E+001   -4.98570945E+001    2.84508370E+002   -9.53898421E+001    1.17249583E+001    2.07739535E+001    2.12834718E+001
    4.36710909E+000    2.25000000E+001    8.20709069E+001   -2.70772769E+001    2.52547566E+002   -3.86245549E+001    9.96191005E+000    1.93766722E+001    1.98471836E+001
    4.67904545E+000    2.25000000E+001    7.08431456E+001   -9.29781836E+000    2.18980355E+002    5.44851925E+000    8.30952258E+000    1.80401853E+001    1.84792994E+001
    4.99098182E+000    2.25000000E+001    5.99759741E+001    3.62298129E+000    1.84864276E+002    3.70738212E+001    6.80475928E+000    1.67377011E+001    1.71577671E+001
    5.30291818E+000    2.25000000E+001    4.97149805E+001    1.20610867E+001    1.51300227E+002    5.71009566E+001    5.40751308E+000    1.54044896E+001    1.58186914E+001
    5.61485455E+000    2.25000000E+001    4.02739037E+001    1.65805341E+001    1.19355133E+002    6.68806162E+001    4.00984201E+000    1.39521430E+001    1.43713470E+001
    5.92679091E+000    2.25000000E+001    3.18217933E+001    1.78787898E+001    8.99882123E+001    6.81363252E+001    2.47534180E+000    1.22812377E+001    1.27131732E+001
    6.23872727E+000    2.25000000E+001    2.44736656E+001    1.67280109E+001    6.39871532E+001    6.28219293E+001    6.68228909E-001    1.02824683E+001    1.07329150E+001
    6.55066364E+000    2.25000000E+001    1.82854627E+001    1.39166246E+001    4.19194364E+001    5.29753106E+001   -1.54401482E+000    7.82249168E+000    8.29798259E+000
    6.86260000E+000    2.25000000E+001    1.32537039E+001    1.01953578E+001    2.41025739E+001    4.05786276E+001   -4.30514094E+000    4.70768670E+000    5.22122367E+000
    7.17453636E+000    2.25000000E+001    9.31975847E+000    6.23126901E+000    1.05952073E+001    2.74344198E+001   -7.77771545E+000    5.99082501E-001    1.18834437E+000
    7.48647273E+000    2.25000000E+001    6.37822941E+000    2.57250688E+000    1.20907346E+000    1.50653053E+001   -1.20220308E+001   -5.18316390E+000   -4.36584598E+000
    7.79840909E+000    2.25000000E+001    4.28855645E+000   -3.74481276E-001   -4.46004272E+000    4.64286053E+000   -1.60913938E+001   -1.25955557E+001   -1.09905347E+001
    8.11034545E+000    2.25000000E+001    2.88866231E+000   -2.35464287E+000   -6.98589524E+000   -3.05120883E+000   -1.73439856E+001   -1.11279020E+001   -1.01972010E+001
    8.42228182E+000    2.25000000E+001    2.00930963E+000   -3.26133789E+000   -7.05469592E+000   -7.63111328E+000   -1.71052241E+001   -8.43626254E+000   -7.88299984E+000
    8.73421818E+000    2.25000000E+001    1.48781700E+000   -3.12207481E+000   -5.40292144E+000   -9.08229841E+000   -1.79929487E+001   -8.29086306E+000   -7.84899265E+000
    9.04615455E+000    2.25000000E+001    1.17990174E+000   -2.07515670E+000   -2.75577685E+000   -7.71036366E+000   -2.12130432E+001   -1.05070056E+001   -1.01527260E+001
    9.35809091E+000    2.25000000E+001    9.68657546E-001   -3.39998516E-001    2.28261530E-001   -4.06972992E+000   -2.85426263E+001   -1.65656531E+001   -1.62985593E+001
    9.67002727E+000    2.25000000E+001    7.70008857E-001    1.81582148E+000    3.00224936E+000    1.12055668E+000   -2.28709742E+001   -1.86552613E+001   -1.72601971E+001
    9.98196364E+000    2.25000000E+001    5.34372463E-001    4.10968828E+000    5.16159930E+000    7.06592493E+000   -1.64216150E+001   -9.93005305E+000   -9.05114793E+000
    1.02939000E+001    2.25000000E+001    2.44657937E-001    6.27440551E+000    6.45911702E+000    1.29824382E+001   -1.28125557E+001   -5.54295861E+000   -4.79656082E+000
    0.00000000E+000    2.81250000E+001    2.13226432E+002   -5.36631412E+002    3.98918596E+002   -1.00396676E+003    2.64595555E+001    3.19004203E+001    3.29918241E+001