##File Type: Far field
##File Format: 6
##Source: bow_tie_antenna
##Date: 2020-11-17 14:06:46  
** File exported by Altair Feko - Solver (seq) Version 2019.1-338 from 2019-06-07

#Frequency:   2.99792458E+008
#Coordinate System: Spherical
#No. of Theta Samples: 10
#No. of Phi Samples: 30
#Result Type: Directivity
#No. of Header Lines: 1
#       "Theta"             "Phi"           "Re(Etheta)"       "Im(Etheta)"        "Re(Ephi)"         "Im(Ephi)"   "Directivity(Theta)" "Directivity(Phi)" "Directivity(Total)"
    0.00000000E+000    9.00000000E+001   -2.99984562E-001   -1.08184575E-001    5.96425456E-008    8.98199120E-008    2.14926383E+000   -1.27269843E+002    2.14926383E+000
    1.00000000E+000    9.00000000E+001   -2.97159878E-001   -1.15527921E-001   -3.69910568E-004    1.31935737E-003    2.14738667E+000   -4.51878302E+001    2.14746688E+000
    2.00000000E+000    9.00000000E+001   -2.94028872E-001   -1.22743557E-001   -8.04386393E-004    2.61852838E-003    2.14175474E+000   -3.91709458E+001    2.14207574E+000
    3.00000000E+000    9.00000000E+001   -2.90598779E-001   -1.29815686E-001   -1.30212929E-003    3.89422609E-003    2.13236749E+000   -3.56550026E+001    2.13309028E+000
    4.00000000E+000    9.00000000E+001   -2.86877743E-001   -1.36728974E-001   -1.86168780E-003    5.14316461E-003    2.11922396E+000   -3.31643878E+001    2.12051031E+000
    5.00000000E+000    9.00000000E+001   -2.82874780E-001   -1.43468616E-001   -2.48140500E-003    6.36216389E-003    2.10232281E+000   -3.12366435E+001    2.10433555E+000
    6.00000000E+000    9.00000000E+001   -2.78599743E-001   -1.50020391E-001   -3.15942711E-003    7.54816414E-003    2.08166228E+000   -2.96657724E+001    2.08456561E+000
    7.00000000E+000    9.00000000E+001   -2.74063274E-001   -1.56370713E-001   -3.89371317E-003    8.69823937E-003    2.05724019E+000   -2.83418841E+001    2.06119999E+000
    8.00000000E+000    9.00000000E+001   -2.69276759E-001   -1.62506686E-001   -4.68204571E-003    9.80961012E-003    2.02905386E+000   -2.71993794E+001    2.03423806E+000
    9.00000000E+000    9.00000000E+001   -2.64252276E-001   -1.68416146E-001   -5.52204246E-003    1.08796553E-002    1.99710015E+000   -2.61959410E+001    2.00367901E+000
    0.00000000E+000    9.10000000E+001   -2.99938872E-001   -1.08168096E-001    5.23551214E-003    1.88817097E-003    2.14794078E+000   -3.30134947E+001    2.14926383E+000
    1.00000000E+000    9.10000000E+001   -2.97116795E-001   -1.15498201E-001    4.81711605E-003    3.33571214E-003    2.14599922E+000   -3.25667786E+001    2.14746623E+000
    2.00000000E+000    9.10000000E+001   -2.93989043E-001   -1.22700752E-001    4.33051206E-003    4.76166413E-003    2.14030315E+000   -3.17509050E+001    2.14207560E+000
    3.00000000E+000    9.10000000E+001   -2.90562840E-001   -1.29759994E-001    3.77700787E-003    6.16249469E-003    2.13085201E+000   -3.07435081E+001    2.13309195E+000
    4.00000000E+000    9.10000000E+001   -2.86846314E-001   -1.36660635E-001    3.15813253E-003    7.53476651E-003    2.11764487E+000   -2.96794313E+001    2.12051520E+000
    5.00000000E+000    9.10000000E+001   -2.82848464E-001   -1.43387910E-001    2.47562865E-003    8.87515280E-003    2.10068038E+000   -2.86347895E+001    2.10434521E+000
    6.00000000E+000    9.10000000E+001   -2.78579122E-001   -1.49927637E-001    1.73144349E-003    1.01804520E-002    2.07995681E+000   -2.76445358E+001    2.08458172E+000
    7.00000000E+000    9.10000000E+001   -2.74048906E-001   -1.56266268E-001    9.27718979E-004    1.14476021E-002    2.05547196E+000   -2.67209970E+001    2.06122437E+000
    8.00000000E+000    9.10000000E+001   -2.69269177E-001   -1.62390943E-001    6.67806127E-005    1.26736934E-002    2.02722320E+000   -2.58655323E+001    2.03427266E+000
    9.00000000E+000    9.10000000E+001   -2.64251983E-001   -1.68289532E-001   -8.48874568E-004    1.38559809E-002    1.99520736E+000   -2.50747014E+001    2.00372594E+000
    0.00000000E+000    9.20000000E+001   -2.99801817E-001   -1.08118668E-001    1.04693698E-002    3.77567697E-003    2.14397092E+000   -2.69942854E+001    2.14926383E+000
    1.00000000E+000    9.20000000E+001   -2.96984080E-001   -1.15431082E-001    1.00026791E-002    5.35095460E-003    2.14196522E+000   -2.68283935E+001    2.14746662E+000
    2.00000000E+000    9.20000000E+001   -2.93861533E-001   -1.22616189E-001    9.46412403E-003    6.90316388E-003    2.13620575E+000   -2.65494377E+001    2.14207964E+000
    3.00000000E+000    9.20000000E+001   -2.90441378E-001   -1.29658291E-001    8.85508051E-003    8.42862010E-003    2.12669195E+000   -2.61786388E+001    2.13310302E+000
    4.00000000E+000    9.20000000E+001   -2.86731724E-001   -1.36542150E-001    8.17715385E-003    9.92373751E-003    2.11342291E+000   -2.57397691E+001    2.12053683E+000
    5.00000000E+000    9.20000000E+001   -2.82741543E-001   -1.43253055E-001    7.43217081E-003    1.13850454E-002    2.09639728E+000   -2.52553714E+001    2.10438105E+000
    6.00000000E+000    9.20000000E+001   -2.78480637E-001   -1.49776874E-001    6.62217047E-003    1.28092032E-002    2.07561334E+000   -2.47445697E+001    2.08463559E+000
    7.00000000E+000    9.20000000E+001   -2.73959591E-001   -1.56100107E-001    5.74939378E-003    1.41930152E-002    2.05106890E+000   -2.42223400E+001    2.06130022E+000
    8.00000000E+000    9.20000000E+001   -2.69189730E-001   -1.62209940E-001    4.81627223E-003    1.55334440E-002    2.02276132E+000   -2.36997168E+001    2.03437462E+000
    9.00000000E+000    9.20000000E+001   -2.64183064E-001   -1.68094286E-001    3.82541535E-003    1.68276231E-002    1.99068745E+000   -2.31844304E+001    2.00385830E+000
    0.00000000E+000    9.30000000E+001   -2.99573441E-001   -1.08036307E-001    1.57000385E-002    5.66203287E-003    2.13735183E+000   -2.34746879E+001    2.14926383E+000
    1.00000000E+000    9.30000000E+001   -2.96761771E-001   -1.15326599E-001    1.51852446E-002    7.36435477E-003    2.13528227E+000   -2.33779300E+001    2.14746806E+000
    2.00000000E+000    9.30000000E+001   -2.93646369E-001   -1.22489925E-001    1.45949836E-002    9.04214577E-003    2.12946016E+000   -2.32288258E+001    2.14208785E+000
    3.00000000E+000    9.30000000E+001   -2.90234413E-001   -1.29510654E-001    1.39306981E-002    1.06915721E-002    2.11988495E+000   -2.30329383E+001    2.13312349E+000
    4.00000000E+000    9.30000000E+001   -2.86533981E-001   -1.36373618E-001    1.31940682E-002    1.23089029E-002    2.10655573E+000   -2.27969725E+001    2.12057516E+000
    5.00000000E+000    9.30000000E+001   -2.82554012E-001   -1.43064168E-001    1.23870031E-002    1.38905266E-002    2.08947118E+000   -2.25281314E+001    2.10444302E+000
    6.00000000E+000    9.30000000E+001   -2.78304270E-001   -1.49568235E-001    1.15116316E-002    1.54329669E-002    2.06862955E+000   -2.22335597E+001    2.08472712E+000
    7.00000000E+000    9.30000000E+001   -2.73795297E-001   -1.55872379E-001    1.05702918E-002    1.69328972E-002    2.04402868E+000   -2.19199341E+001    2.06142742E+000
    8.00000000E+000    9.30000000E+001   -2.69038371E-001   -1.61963842E-001    9.56551858E-003    1.83871551E-002    2.01566593E+000   -2.15932094E+001    2.03454378E+000
    9.00000000E+000    9.30000000E+001   -2.64045452E-001   -1.67830588E-001    8.50003155E-003    1.97927550E-002    1.98353815E+000   -2.12585025E+001    2.00407590E+000
    0.00000000E+000    9.40000000E+001   -2.99253811E-001   -1.07921036E-001    2.09259247E-002    7.54666405E-003    2.12807946E+000   -2.09790121E+001    2.14926383E+000
    1.00000000E+000    9.40000000E+001   -2.96449928E-001   -1.15184804E-001    2.03632796E-002    9.37518385E-003    2.12594634E+000   -2.09118615E+001    2.14747053E+000
    2.00000000E+000    9.40000000E+001   -2.93343603E-001   -1.22322038E-001    1.97216254E-002    1.11777299E-002    2.12006237E+000   -2.08150645E+001    2.14210022E+000
    3.00000000E+000    9.40000000E+001   -2.89941984E-001   -1.29317188E-001    1.90024701E-002    1.29503232E-002    2.11042702E+000   -2.06907634E+001    2.13315331E+000
    4.00000000E+000    9.40000000E+001   -2.86253111E-001   -1.36155165E-001    1.82075669E-002    1.46890914E-002    2.09703937E+000   -2.05415821E+001    2.12063014E+000
    5.00000000E+000    9.40000000E+001   -2.82285882E-001   -1.42821399E-001    1.73389057E-002    1.63902858E-002    2.07989811E+000   -2.03704643E+001    2.10453103E+000
    6.00000000E+000    9.40000000E+001   -2.78050013E-001   -1.49301893E-001    1.63987028E-002    1.80502973E-002    2.05900151E+000   -2.01805133E+001    2.08485621E+000
    7.00000000E+000    9.40000000E+001   -2.73555995E-001   -1.55583278E-001    1.53893907E-002    1.96656720E-002    2.03434738E+000   -1.99748507E+001    2.06160582E+000
    8.00000000E+000    9.40000000E+001   -2.68815050E-001   -1.61652860E-001    1.43136054E-002    2.12331253E-002    2.00593310E+000   -1.97565000E+001    2.03477992E+000
    9.00000000E+000    9.40000000E+001   -2.63839075E-001   -1.67498667E-001    1.31741737E-002    2.27495555E-002    1.97375552E+000   -1.95283008E+001    2.00437844E+000
    0.00000000E+000    9.50000000E+001   -2.98843025E-001   -1.07772892E-001    2.61454367E-002    9.42899644E-003    2.11614814E+000   -1.90447891E+001    2.14926383E+000
    1.00000000E+000    9.50000000E+001   -2.96048640E-001   -1.15005765E-001    2.55352520E-002    1.13827146E-002    2.11395178E+000   -1.89937864E+001    2.14747404E+000
    2.00000000E+000    9.50000000E+001   -2.92953311E-001   -1.22112626E-001    2.48425844E-002    1.33090390E-002    2.10800675E+000   -1.89239558E+001    2.14211673E+000
    3.00000000E+000    9.50000000E+001   -2.89564151E-001   -1.29078020E-001    2.40690059E-002    1.52038495E-002    2.09831254E+000   -1.88363255E+001    2.13319245E+000
    4.00000000E+000    9.50000000E+001   -2.85889156E-001   -1.35886951E-001    2.32163409E-002    1.70631362E-002    2.08486822E+000   -1.87321558E+001    2.12070170E+000
    5.00000000E+000    9.50000000E+001   -2.81937174E-001   -1.42524934E-001    2.22866575E-002    1.88830171E-002    2.06767249E+000   -1.86128854E+001    2.10464497E+000
    6.00000000E+000    9.50000000E+001   -2.77717867E-001   -1.48978060E-001    2.12822575E-002    2.06597544E-002    2.04672361E+000   -1.84800750E+001    2.08502267E+000
    7.00000000E+000    9.50000000E+001   -2.73241664E-001   -1.55233040E-001    2.02056650E-002    2.23897699E-002    2.02201941E+000   -1.83353522E+001    2.06183516E+000
    8.00000000E+000    9.50000000E+001   -2.68519718E-001   -1.61277255E-001    1.90596142E-002    2.40696605E-002    1.99355726E+000   -1.81803620E+001    2.03508272E+000
    9.00000000E+000    9.50000000E+001   -2.63563858E-001   -1.67098804E-001    1.78470358E-002    2.56962111E-002    1.96133400E+000   -1.80167242E+001    2.00476552E+000
    0.00000000E+000    9.60000000E+001   -2.98341209E-001   -1.07591919E-001    3.13569846E-002    1.13084567E-002    2.10155056E+000   -1.74660224E+001    2.14926383E+000
    1.00000000E+000    9.60000000E+001   -2.95558019E-001   -1.14789565E-001    3.06996312E-002    1.33862217E-002    2.09929130E+000   -1.74251111E+001    2.14747858E+000
    2.00000000E+000    9.60000000E+001   -2.92475591E-001   -1.21861809E-001    2.99563967E-002    1.54351987E-002    2.09328603E+000   -1.73713441E+001    2.14213736E+000
    3.00000000E+000    9.60000000E+001   -2.89100994E-001   -1.28793306E-001    2.91289153E-002    1.74511310E-002    2.08353423E+000   -1.73052893E+001    2.13324086E+000
    4.00000000E+000    9.60000000E+001   -2.85442176E-001   -1.35569162E-001    2.82190804E-002    1.94298755E-002    2.07003501E+000   -1.72276405E+001    2.12078974E+000
    5.00000000E+000    9.60000000E+001   -2.81507927E-001   -1.42174994E-001    2.72290361E-002    2.13674211E-002    2.05278705E+000   -1.71391954E+001    2.10478468E+000
    6.00000000E+000    9.60000000E+001   -2.77307843E-001   -1.48596987E-001    2.61611668E-002    2.32599050E-002    2.03178861E+000   -1.70408323E+001    2.08522629E+000
    7.00000000E+000    9.60000000E+001   -2.72852284E-001   -1.54821943E-001    2.50180855E-002    2.51036291E-002    2.00703753E+000   -1.69334857E+001    2.06211515E+000
    8.00000000E+000    9.60000000E+001   -2.68152328E-001   -1.60837330E-001    2.38026214E-002    2.68950747E-002    1.97853115E+000   -1.68181233E+001    2.03545178E+000
    9.00000000E+000    9.60000000E+001   -2.63219719E-001   -1.66631326E-001    2.25178058E-002    2.86309172E-002    1.94626633E+000   -1.66957244E+001    2.00523664E+000
    0.00000000E+000    9.70000000E+001   -2.97748515E-001   -1.07378172E-001    3.65589808E-002    1.31844722E-002    2.08427773E+000   -1.61328275E+001    2.14926383E+000
    1.00000000E+000    9.70000000E+001   -2.94978203E-001   -1.14536300E-001    3.58548887E-002    1.53849821E-002    2.08195592E+000   -1.60987978E+001    2.14748415E+000
    2.00000000E+000    9.70000000E+001   -2.91910563E-001   -1.21569727E-001    3.50616000E-002    1.75553385E-002    2.07589124E+000   -1.60555494E+001    2.14216208E+000
    3.00000000E+000    9.70000000E+001   -2.88552614E-001   -1.28463225E-001    3.41808086E-002    1.96911528E-002    2.06608317E+000   -1.60034278E+001    2.13329847E+000
    4.00000000E+000    9.70000000E+001   -2.84912247E-001   -1.35202017E-001    3.32144752E-002    2.17881537E-002    2.05253082E+000   -1.59428532E+001    2.12089416E+000
    5.00000000E+000    9.70000000E+001   -2.80998188E-001   -1.41771832E-001    3.21648172E-002    2.38422054E-002    2.03523287E+000   -1.58743105E+001    2.10494999E+000
    6.00000000E+000    9.70000000E+001   -2.76819961E-001   -1.48158962E-001    3.10342988E-002    2.58493244E-002    2.01418759E+000   -1.57983378E+001    2.08546681E+000
    7.00000000E+000    9.70000000E+001   -2.72387845E-001   -1.54350309E-001    2.98256187E-002    2.78056965E-002    1.98939281E+000   -1.57155144E+001    2.06244543E+000
    8.00000000E+000    9.70000000E+001   -2.67712833E-001   -1.60333436E-001    2.85416978E-002    2.97076919E-002    1.96084586E+000   -1.56264493E+001    2.03588664E+000
    9.00000000E+000    9.70000000E+001   -2.62806577E-001   -1.66096611E-001    2.71856643E-002    3.15518794E-002    1.92854359E+000   -1.55317699E+001    2.00579116E+000
    0.00000000E+000    9.80000000E+001   -2.97065125E-001   -1.07131717E-001    4.17498408E-002    1.50564717E-002    2.06431900E+000   -1.49796133E+001    2.14926383E+000
    1.00000000E+000    9.80000000E+001   -2.94309357E-001   -1.14246085E-001    4.09994984E-002    1.73782754E-002    2.06193502E+000   -1.49505700E+001    2.14749073E+000
    2.00000000E+000    9.80000000E+001   -2.91258371E-001   -1.21236538E-001    4.01567330E-002    1.96685917E-002    2.05581176E+000   -1.49146836E+001    2.14219086E+000
    3.00000000E+000    9.80000000E+001   -2.87919131E-001   -1.28087980E-001    3.92232968E-002    2.19229055E-002    2.04594873E+000   -1.48721798E+001    2.13336521E+000
    4.00000000E+000    9.80000000E+001   -2.84299463E-001   -1.34785763E-001    3.82012148E-002    2.41368220E-002    2.03234503E+000   -1.48233317E+001    2.12101481E+000
    5.00000000E+000    9.80000000E+001   -2.80408022E-001   -1.41315737E-001    3.70927752E-002    2.63060855E-002    2.01499935E+000   -1.47684548E+001    2.10514069E+000
    6.00000000E+000    9.80000000E+001   -2.76254251E-001   -1.47664312E-001    3.59005188E-002    2.84265966E-002    1.99390995E+000   -1.47079010E+001    2.08574393E+000
    7.00000000E+000    9.80000000E+001   -2.71848340E-001   -1.53818501E-001    3.46272269E-002    3.04944294E-002    1.96907463E+000   -1.46420518E+001    2.06282558E+000
    8.00000000E+000    9.80000000E+001   -2.67201188E-001   -1.59765971E-001    3.32759081E-002    3.25058467E-002    1.94049075E+000   -1.45713126E+001    2.03638672E+000
    9.00000000E+000    9.80000000E+001   -2.62324343E-001   -1.65495087E-001    3.18497839E-002    3.44573151E-002    1.90815513E+000   -1.44961052E+001    2.00642839E+000
    0.00000000E+000    9.90000000E+001   -2.96291245E-001   -1.06852629E-001    4.69279834E-002    1.69238848E-002    2.04166199E+000   -1.39640725E+001    2.14926383E+000
    1.00000000E+000    9.90000000E+001   -2.93551671E-001   -1.13919047E-001    4.61319368E-002    1.93653840E-002    2.03921622E+000   -1.39388069E+001    2.14749831E+000
    2.00000000E+000    9.90000000E+001   -2.90519183E-001   -1.20862422E-001    4.52403369E-002    2.17740965E-002    2.03303525E+000   -1.39083340E+001    2.14222366E+000
    3.00000000E+000    9.90000000E+001   -2.87200686E-001   -1.27667802E-001    4.42549918E-002    2.41453859E-002    2.02311858E+000   -1.38728089E+001    2.13344100E+000
    4.00000000E+000    9.90000000E+001   -2.83603935E-001   -1.34320677E-001    4.31779883E-002    2.64747394E-002    2.00946532E+000   -1.38324190E+001    2.12115154E+000
    5.00000000E+000    9.90000000E+001   -2.79737505E-001   -1.40807032E-001    4.20116826E-002    2.87577863E-002    1.99207415E+000   -1.37873806E+001    2.10535654E+000
    6.00000000E+000    9.90000000E+001   -2.75610752E-001   -1.47113402E-001    4.07586888E-002    3.09903164E-002    1.97094333E+000   -1.37379359E+001    2.08605729E+000
    7.00000000E+000    9.90000000E+001   -2.71233769E-001   -1.53226923E-001    3.94218670E-002    3.31682964E-002    1.94607066E+000   -1.36843485E+001    2.06325512E+000
    8.00000000E+000    9.90000000E+001   -2.66617348E-001   -1.59135374E-001    3.80043101E-002    3.52878865E-002    1.91745348E+000   -1.36269003E+001    2.03695139E+000
    9.00000000E+000    9.90000000E+001   -2.61772928E-001   -1.64827228E-001    3.65093285E-002    3.73454548E-002    1.88508858E+000   -1.35658876E+001    2.00714748E+000
    0.00000000E+000    1.00000000E+002   -2.95427112E-001   -1.06540992E-001    5.20918313E-002    1.87861427E-002    2.01629259E+000   -1.30573182E+001    2.14926383E+000
    1.00000000E+000    1.00000000E+002   -2.92705360E-001   -1.13555329E-001    5.12506836E-002    2.13455939E-002    2.01378544E+000   -1.30350143E+001    2.14750690E+000
    2.00000000E+000    1.00000000E+002   -2.89693189E-001   -1.20447579E-001    5.03109547E-002    2.38709962E-002    2.00754762E+000   -1.30086758E+001    2.14226043E+000
    3.00000000E+000    1.00000000E+002   -2.86397439E-001   -1.27202946E-001    4.92745064E-002    2.63575978E-002    1.99757864E+000   -1.29784142E+001    2.13352574E+000
    4.00000000E+000    1.00000000E+002   -2.82825790E-001   -1.33807067E-001    4.81434846E-002    2.88007733E-002    1.98387761E+000   -1.29443635E+001    2.12130419E+000
    5.00000000E+000    1.00000000E+002   -2.78986729E-001   -1.40246072E-001    4.69203101E-002    3.11960427E-002    1.96644320E+000   -1.29066781E+001    2.10559726E+000
    6.00000000E+000    1.00000000E+002   -2.74889514E-001   -1.46506635E-001    4.56076672E-002    3.35390897E-002    1.94527366E+000   -1.28655315E+001    2.08640649E+000
    7.00000000E+000    1.00000000E+002   -2.70544136E-001   -1.52576021E-001    4.42084910E-002    3.58257789E-002    1.92036680E+000   -1.28211132E+001    2.06373349E+000
    8.00000000E+000    1.00000000E+002   -2.65961273E-001   -1.58442134E-001    4.27259544E-002    3.80521722E-002    1.89171992E+000   -1.27736265E+001    2.03757993E+000
    9.00000000E+000    1.00000000E+002   -2.61152241E-001   -1.64093556E-001    4.11634525E-002    4.02145436E-002    1.85932981E+000   -1.27232865E+001    2.00794754E+000
    0.00000000E+000    1.01000000E+002   -2.94472989E-001   -1.06196902E-001    5.72398115E-002    2.06426782E-002    1.98819490E+000   -1.22387471E+001    2.14926383E+000
    1.00000000E+000    1.01000000E+002   -2.91770664E-001   -1.13155090E-001    5.63542221E-002    2.33181946E-002    1.98562679E+000   -1.22188285E+001    2.14751646E+000
    2.00000000E+000    1.01000000E+002   -2.88780603E-001   -1.19992229E-001    5.53671323E-002    2.59584397E-002    1.97933300E+000   -1.21957441E+001    2.14230114E+000
    3.00000000E+000    1.01000000E+002   -2.85509574E-001   -1.26693688E-001    5.42804549E-002    2.85585525E-002    1.96931305E+000   -1.21695766E+001    2.13361932E+000
    4.00000000E+000    1.01000000E+002   -2.81965174E-001   -1.33245266E-001    5.30963923E-002    3.11138006E-002    1.95556602E+000   -1.21404249E+001    2.12147256E+000
    5.00000000E+000    1.01000000E+002   -2.78155797E-001   -1.39633247E-001    5.18174267E-002    3.36196005E-002    1.93809062E+000   -1.21084034E+001    2.10586255E+000
    6.00000000E+000    1.01000000E+002   -2.74090599E-001   -1.45844451E-001    5.04463088E-002    3.60715351E-002    1.91688506E+000   -1.20736401E+001    2.08679109E+000
    7.00000000E+000    1.01000000E+002   -2.69779456E-001   -1.51866284E-001    4.89860449E-002    3.84653720E-002    1.89194714E+000   -1.20362756E+001    2.06426009E+000
    8.00000000E+000    1.01000000E+002   -2.65232923E-001   -1.57686780E-001    4.74398835E-002    4.07970797E-002    1.86327416E+000   -1.19964610E+001    2.03827154E+000
    9.00000000E+000    1.01000000E+002   -2.60462188E-001   -1.63294644E-001    4.58112999E-002    4.30628425E-002    1.83086287E+000   -1.19543568E+001    2.00882751E+000
    0.00000000E+000    1.02000000E+002   -2.93429167E-001   -1.05820464E-001    6.23703559E-002    2.24929257E-002    1.95735121E+000   -1.14931469E+001    2.14926383E+000
    1.00000000E+000    1.02000000E+002   -2.90747850E-001   -1.12718503E-001    6.14410394E-002    2.52824796E-002    1.95472258E+000   -1.14751917E+001    2.14752700E+000
    2.00000000E+000    1.02000000E+002   -2.87781660E-001   -1.19496611E-001    6.04074181E-002    2.80355823E-002    1.94837371E+000   -1.14547316E+001    2.14234573E+000
    3.00000000E+000    1.02000000E+002   -2.84537290E-001   -1.26140332E-001    5.92714531E-002    3.07472696E-002    1.93830412E+000   -1.14318293E+001    2.13372162E+000
    4.00000000E+000    1.02000000E+002   -2.81022249E-001   -1.32635639E-001    5.80354002E-002    3.34127085E-002    1.92451290E+000   -1.14065603E+001    2.12165643E+000
    5.00000000E+000    1.02000000E+002   -2.77244829E-001   -1.38968978E-001    5.67017996E-002    3.60272175E-002    1.90699872E+000   -1.13790110E+001    2.10615207E+000
    6.00000000E+000    1.02000000E+002   -2.73214076E-001   -1.45127326E-001    5.52734646E-002    3.85862847E-002    1.88575983E+000   -1.13492788E+001    2.08721062E+000
    7.00000000E+000    1.02000000E+002   -2.68939746E-001   -1.51098238E-001    5.37534687E-002    4.10855859E-002    1.86079398E+000   -1.13174705E+001    2.06483426E+000
    8.00000000E+000    1.02000000E+002   -2.64432262E-001   -1.56869887E-001    5.21451315E-002    4.35210010E-002    1.83209845E+000   -1.12837012E+001    2.03902533E+000
    9.00000000E+000    1.02000000E+002   -2.59702673E-001   -1.62431108E-001    5.04520038E-002    4.58886297E-002    1.79966998E+000   -1.12480937E+001    2.00978629E+000
    0.00000000E+000    1.03000000E+002   -2.92295964E-001   -1.05411791E-001    6.74819016E-002    2.43363217E-002    1.92374194E+000   -1.08089653E+001    2.14926383E+000
    1.00000000E+000    1.03000000E+002   -2.89637208E-001   -1.12245755E-001    6.65096273E-002    2.72377469E-002    1.92105325E+000   -1.07926559E+001    2.14753850E+000
    2.00000000E+000    1.03000000E+002   -2.86696621E-001   -1.18960982E-001    6.54303639E-002    3.01015859E-002    1.91465020E+000   -1.07743551E+001    2.14239414E+000
    3.00000000E+000    1.03000000E+002   -2.83480812E-001   -1.25543206E-001    6.42461184E-002    3.29227777E-002    1.90453231E+000   -1.07541119E+001    2.13383252E+000
    4.00000000E+000    1.03000000E+002   -2.79997195E-001   -1.31978578E-001    6.29591968E-002    3.56963951E-002    1.89069867E+000   -1.07319847E+001    2.12185558E+000
    5.00000000E+000    1.03000000E+002   -2.76253959E-001   -1.38253719E-001    6.15721939E-002    3.84176647E-002    1.87314796E+000   -1.07080407E+001    2.10646547E+000
    6.00000000E+000    1.03000000E+002   -2.72260030E-001   -1.44355774E-001    6.00879815E-002    4.10819855E-002    1.85187838E+000   -1.06823554E+001    2.08766453E+000
    7.00000000E+000    1.03000000E+002   -2.68025034E-001   -1.50272452E-001    5.85096960E-002    4.36849470E-002    1.82688770E+000   -1.06550116E+001    2.06545526E+000
    8.00000000E+000    1.03000000E+002   -2.63559259E-001   -1.55992074E-001    5.68407236E-002    4.62223460E-002    1.79817315E+000   -1.06260989E+001    2.03984036E+000
    9.00000000E+000    1.03000000E+002   -2.58873602E-001   -1.61503615E-001    5.50846855E-002    4.86902023E-002    1.76573147E+000   -1.05957129E+001    2.01082265E+000
    0.00000000E+000    1.04000000E+002   -2.91073724E-001   -1.04971009E-001    7.25728918E-002    2.61723045E-002    1.88734561E+000   -1.01772232E+001    2.14926383E+000
    1.00000000E+000    1.04000000E+002   -2.88439057E-001   -1.11737048E-001    7.15584821E-002    2.91832991E-002    1.88459733E+000   -1.01623142E+001    2.14755094E+000
    2.00000000E+000    1.04000000E+002   -2.85525768E-001   -1.18385621E-001    7.04345250E-002    3.21556195E-002    1.87814101E+000   -1.01458204E+001    2.14244631E+000
    3.00000000E+000    1.04000000E+002   -2.82340382E-001   -1.24902659E-001    6.92030704E-002    3.50841149E-002    1.86797616E+000   -1.01277807E+001    2.13395187E+000
    4.00000000E+000    1.04000000E+002   -2.78890212E-001   -1.31274503E-001    6.78664711E-002    3.79637702E-002    1.85410189E+000   -1.01082412E+001    2.12206976E+000
    5.00000000E+000    1.04000000E+002   -2.75183335E-001   -1.37487958E-001    6.64273729E-002    4.07897266E-002    1.83651684E+000   -1.00872549E+001    2.10680235E+000
    6.00000000E+000    1.04000000E+002   -2.71228552E-001   -1.43530343E-001    6.48887022E-002    4.35572999E-002    1.81521922E+000   -1.00648815E+001    2.08815227E+000
    7.00000000E+000    1.04000000E+002   -2.67035355E-001   -1.49389532E-001    6.32536536E-002    4.62619990E-002    1.79020677E+000   -1.00411863E+001    2.06612233E+000
    8.00000000E+000    1.04000000E+002   -2.62613883E-001   -1.55054003E-001    6.15256755E-002    4.88995432E-002    1.76147672E+000   -1.00162403E+001    2.04071558E+000
    9.00000000E+000    1.04000000E+002   -2.57974879E-001   -1.60512874E-001    5.97084541E-002    5.14658773E-002    1.72902575E+000   -9.99011891E+000    2.01193528E+000
    0.00000000E+000    1.05000000E+002   -2.89762821E-001   -1.04498251E-001    7.76417755E-002    2.80003151E-002    1.84813876E+000   -9.59080276E+000    2.14926383E+000
    1.00000000E+000    1.05000000E+002   -2.87153736E-001   -1.11192599E-001    7.65861055E-002    3.11184439E-002    1.84533137E+000   -9.57710107E+000    2.14756431E+000
    2.00000000E+000    1.05000000E+002   -2.84269406E-001   -1.17770824E-001    7.54184605E-002    3.41968600E-002    1.83882269E+000   -9.56214133E+000    2.14250218E+000
    3.00000000E+000    1.05000000E+002   -2.81116263E-001   -1.24219065E-001    7.41409306E-002    3.72303295E-002    1.82861223E+000   -9.54595486E+000    2.13407953E+000
    4.00000000E+000    1.05000000E+002   -2.77701515E-001   -1.30523862E-001    7.27559121E-002    4.02137564E-002    1.81469909E+000   -9.52857874E+000    2.12229869E+000
    5.00000000E+000    1.05000000E+002   -2.74033120E-001   -1.36672213E-001    7.12660979E-002    4.31422027E-002    1.79708190E+000   -9.51005553E+000    2.10716229E+000
    6.00000000E+000    1.05000000E+002   -2.70119750E-001   -1.42651618E-001    6.96744650E-002    4.60109072E-002    1.77575887E+000   -9.49043289E+000    2.08867322E+000
    7.00000000E+000    1.05000000E+002   -2.65970752E-001   -1.48450127E-001    6.79842616E-002    4.88153045E-002    1.75072770E+000   -9.46976325E+000    2.06683462E+000
    8.00000000E+000    1.05000000E+002   -2.61596112E-001   -1.54056378E-001    6.61989930E-002    5.15510414E-002    1.72198559E+000   -9.44810337E+000    2.04164991E+000
    9.00000000E+000    1.05000000E+002   -2.57006409E-001   -1.59459643E-001    6.43224057E-002    5.42139932E-002    1.68952920E+000   -9.42551393E+000    2.01312276E+000
    0.00000000E+000    1.06000000E+002   -2.88363652E-001   -1.03993663E-001    8.26870088E-002    2.98197965E-002    1.80609589E+000   -9.04396645E+000    2.14926383E+000
    1.00000000E+000    1.06000000E+002   -2.85781615E-001   -1.10612639E-001    8.15910046E-002    3.30424942E-002    1.80322991E+000   -9.03131709E+000    2.14757858E+000
    2.00000000E+000    1.06000000E+002   -2.82927865E-001   -1.17116907E-001    8.03807336E-002    3.62244923E-002    1.79666979E+000   -9.01767581E+000    2.14256168E+000
    3.00000000E+000    1.06000000E+002   -2.79808739E-001   -1.23492821E-001    7.90583230E-002    3.93604808E-002    1.78641506E+000   -9.00306816E+000    2.13421534E+000
    4.00000000E+000    1.06000000E+002   -2.76431337E-001   -1.29727130E-001    7.76262093E-002    4.24452896E-002    1.77246480E+000   -8.98752432E+000    2.12254211E+000
    5.00000000E+000    1.06000000E+002   -2.72803492E-001   -1.35807032E-001    7.60871285E-002    4.54739081E-002    1.75481765E+000   -8.97107882E+000    2.10754485E+000
    6.00000000E+000    1.06000000E+002   -2.68933739E-001   -1.41720218E-001    7.44441037E-002    4.84415048E-002    1.73347179E+000   -8.95377031E+000    2.08922673E+000
    7.00000000E+000    1.06000000E+002   -2.64831276E-001   -1.47454920E-001    7.27004324E-002    5.13434454E-002    1.70842491E+000   -8.93564129E+000    2.06759124E+000
    8.00000000E+000    1.06000000E+002   -2.60505927E-001   -1.52999945E-001    7.08596717E-002    5.41753106E-002    1.67967416E+000   -8.91673774E+000    2.04264216E+000
    9.00000000E+000    1.06000000E+002   -2.55968100E-001   -1.58344723E-001    6.89256227E-002    5.69329113E-002    1.64721619E+000   -8.89710886E+000    2.01438358E+000
    0.00000000E+000    1.07000000E+002   -2.86876646E-001   -1.03457397E-001    8.77070548E-002    3.16301944E-002    1.76118942E+000   -8.53202166E+000    2.14926383E+000